 *******************************************************************************
 ** Site#: 26757        For non-commercial use only    Version 19.255M 64BITS **
 *******************************************************************************
 ** Cite this program as: MOPAC2016, Version: 19.255M, James J. P. Stewart,   **
 ** Stewart Computational Chemistry, web: HTTP://OpenMOPAC.net. Days left: 276**
 *******************************************************************************
 **                                                                           **
 **                                MOPAC2016                                  **
 **                                                                           **
 *******************************************************************************

                              PM7 CALCULATION RESULTS

 *******************************************************************************
 *  CALCULATION DONE:                                Tue Dec 10 17:11:15 2019  *
 *  PM7        - The PM7 Hamiltonian to be used
 *  PRECISE    - CRITERIA TO BE INCREASED BY 100 TIMES
 *  T=         - A TIME OF 172800.0 SECONDS REQUESTED
 *  DUMP=N     - RESTART FILE WRITTEN EVERY  7200.000 SECONDS
 *  AUX        - OUTPUT AUXILIARY INFORMATION
 *******************************************************************************
PM7 PRECISE PM7 PRECISE PM7 PRECISE AUX
 Run from MolSSI flowchart
 A structural optimization using PM7 hamiltonian
   ATOM   CHEMICAL          X               Y               Z
  NUMBER   SYMBOL      (ANGSTROMS)     (ANGSTROMS)     (ANGSTROMS)
 
     1       C          0.95290600  *   0.03735800  *   0.10074300  *
     2       C          0.45961500  *   0.70008000  *  -1.17433000  *
     3       C          0.95272100  *  -0.03396250  *  -2.40967000  *
     4       H          0.59762400  *  -1.06957000  *  -2.41758000  *
     5       H          0.58654400  *   0.45782300  *  -3.31621000  *
     6       H          2.04675000  *  -0.04610720  *  -2.44713000  *
     7       H         -0.63584600  *   0.72098800  *  -1.17490000  *
     8       H          0.80574000  *   1.73876000  *  -1.20395000  *
     9       H          0.59795200  *  -0.99609400  *   0.16748100  *
    10       H          0.58691400  *   0.58005800  *   0.97774300  *
    11       H          2.04702000  *   0.02754620  *   0.13862500  *
 


          CARTESIAN COORDINATES 

    NO.       ATOM           X           Y           Z

     1         C          0.9529      0.0374      0.1007
     2         C          0.4596      0.7001     -1.1743
     3         C          0.9527     -0.0340     -2.4097
     4         H          0.5976     -1.0696     -2.4176
     5         H          0.5865      0.4578     -3.3162
     6         H          2.0467     -0.0461     -2.4471
     7         H         -0.6358      0.7210     -1.1749
     8         H          0.8057      1.7388     -1.2040
     9         H          0.5980     -0.9961      0.1675
    10         H          0.5869      0.5801      0.9777
    11         H          2.0470      0.0275      0.1386

 General Reference for PM7:
 "Optimization of Parameters for Semiempirical Methods VI: More Modifications to the 
 NDDO Approximations and Re-optimization of Parameters", J. J. P. Stewart, J. Mol. Mod., 1:32, 19 (2013)
 http://www.springerlink.com/openurl.asp?genre=article&id=doi:10.1007/s00894-012-1667-x

           Empirical Formula: C3 H8  =    11 atoms



      MOLECULAR POINT GROUP   :   C2v 


      RHF CALCULATION, NO. OF DOUBLY OCCUPIED LEVELS = 10


          Geometry optimization using EF

          DIAGONAL MATRIX USED AS START HESSIAN

 CYCLE:     1 TIME:   0.000 TIME LEFT:  2.00D  GRAD.:    16.195 HEAT: -22.72728
 CYCLE:     2 TIME:   0.004 TIME LEFT:  2.00D  GRAD.:    11.501 HEAT: -22.91546
 CYCLE:     3 TIME:   0.000 TIME LEFT:  2.00D  GRAD.:    17.928 HEAT: -22.92478
 CYCLE:     4 TIME:   0.004 TIME LEFT:  2.00D  GRAD.:     4.730 HEAT: -23.05522
 CYCLE:     5 TIME:   0.000 TIME LEFT:  2.00D  GRAD.:     4.136 HEAT: -23.06698
 CYCLE:     6 TIME:   0.004 TIME LEFT:  2.00D  GRAD.:     3.980 HEAT: -23.07116
 CYCLE:     7 TIME:   0.000 TIME LEFT:  2.00D  GRAD.:     2.727 HEAT: -23.07738
 CYCLE:     8 TIME:   0.000 TIME LEFT:  2.00D  GRAD.:     2.404 HEAT: -23.07944
 CYCLE:     9 TIME:   0.004 TIME LEFT:  2.00D  GRAD.:     1.276 HEAT: -23.08272
 CYCLE:    10 TIME:   0.000 TIME LEFT:  2.00D  GRAD.:     1.618 HEAT: -23.08384
 CYCLE:    11 TIME:   0.000 TIME LEFT:  2.00D  GRAD.:     0.779 HEAT: -23.08561
 CYCLE:    12 TIME:   0.004 TIME LEFT:  2.00D  GRAD.:     0.577 HEAT: -23.08665
 CYCLE:    13 TIME:   0.000 TIME LEFT:  2.00D  GRAD.:     0.496 HEAT: -23.08719
 CYCLE:    14 TIME:   0.000 TIME LEFT:  2.00D  GRAD.:     0.288 HEAT: -23.08750
 CYCLE:    15 TIME:   0.004 TIME LEFT:  2.00D  GRAD.:     0.177 HEAT: -23.08758
 CYCLE:    16 TIME:   0.000 TIME LEFT:  2.00D  GRAD.:     0.094 HEAT: -23.08761
 CYCLE:    17 TIME:   0.000 TIME LEFT:  2.00D  GRAD.:     0.060 HEAT: -23.08763
 CYCLE:    18 TIME:   0.004 TIME LEFT:  2.00D  GRAD.:     0.041 HEAT: -23.08763

     GRADIENT =  0.04098 IS LESS THAN CUTOFF =  0.05000



 -------------------------------------------------------------------------------
 PM7 PRECISE PM7 PRECISE PM7 PRECISE AUX
 Run from MolSSI flowchart
 A structural optimization using PM7 hamiltonian


     GEOMETRY OPTIMISED USING EIGENVECTOR FOLLOWING (EF).     
     SCF FIELD WAS ACHIEVED                                   


                              PM7 CALCULATION
                                                       MOPAC2016 (Version: 19.255M)
                                                       Tue Dec 10 17:11:15 2019
                                                       No. of days remaining = 276




          FINAL HEAT OF FORMATION =        -23.08763 KCAL/MOL =     -96.59866 KJ/MOL


          TOTAL ENERGY            =       -476.93173 EV
          ELECTRONIC ENERGY       =      -1641.40330 EV  POINT GROUP:     C2v 
          CORE-CORE REPULSION     =       1164.47157 EV
          COSMO AREA              =         95.91 SQUARE ANGSTROMS
          COSMO VOLUME            =         79.21 CUBIC ANGSTROMS

          GRADIENT NORM           =          0.04098 = 0.01236 PER ATOM
          IONIZATION POTENTIAL    =         11.393494 EV
          HOMO LUMO ENERGIES (EV) =        -11.393  4.300
          NO. OF FILLED LEVELS    =         10
          MOLECULAR WEIGHT        =         44.0962

          MOLECULAR DIMENSIONS (Angstroms)

            Atom       Atom       Distance
            H    10    H     5     4.33385
            H     8    H     4     2.80558
            H    11    H     7     2.74301


          SCF CALCULATIONS        =         21
 
          WALL-CLOCK TIME         =          0.035 SECONDS
          COMPUTATION TIME        =          0.034 SECONDS




   ATOM   CHEMICAL          X               Y               Z
  NUMBER   SYMBOL      (ANGSTROMS)     (ANGSTROMS)     (ANGSTROMS)
 
     1       C          0.95339694  *   0.03630678  *   0.10676614  *
     2       C          0.45570646  *   0.70685111  *  -1.17451715  *
     3       C          0.95318435  *  -0.03544706  *  -2.41568720  *
     4       H          0.60682162  *  -1.07483505  *  -2.42455331  *
     5       H          0.59482937  *   0.44041044  *  -3.33474689  *
     6       H          2.04781178  *  -0.05397275  *  -2.45748577  *
     7       H         -0.65041971  *   0.74383337  *  -1.17547432  *
     8       H          0.79358581  *   1.76035436  *  -1.20452075  *
     9       H          0.60712014  *  -1.00090194  *   0.17473149  *
    10       H          0.59511769  *   0.56360979  *   0.99735249  *
    11       H          2.04802962  *   0.02028509  *   0.14940164  *

                             CARTESIAN COORDINATES

   1    C        0.953396940     0.036306781     0.106766136
   2    C        0.455706463     0.706851109    -1.174517154
   3    C        0.953184346    -0.035447060    -2.415687199
   4    H        0.606821616    -1.074835053    -2.424553310
   5    H        0.594829372     0.440410438    -3.334746887
   6    H        2.047811776    -0.053972745    -2.457485772
   7    H       -0.650419708     0.743833374    -1.175474321
   8    H        0.793585811     1.760354356    -1.204520751
   9    H        0.607120136    -1.000901944     0.174731495
  10    H        0.595117695     0.563609788     0.997352487
  11    H        2.048029616     0.020285088     0.149401637


           Empirical Formula: C3 H8  =    11 atoms



      MOLECULAR POINT GROUP   :   C2v 


                  EIGENVALUES  
 -28.15285 -23.78378 -20.12036 -15.81539 -15.09076 -13.90467 -13.15316 -12.00620
 -11.96843 -11.39349   4.30039   4.65201   5.51052   5.89436   5.94714   5.98250
   6.23856   6.66433   7.06227   7.13216


              NET ATOMIC CHARGES AND DIPOLE CONTRIBUTIONS

  ATOM NO.   TYPE          CHARGE      No. of ELECS.   s-Pop       p-Pop       
    1          C          -0.438881        4.4389     1.05225     3.38663
    2          C          -0.229516        4.2295     1.05096     3.17856
    3          C          -0.438883        4.4389     1.05225     3.38663
    4          H           0.142201        0.8578     0.85780
    5          H           0.138604        0.8614     0.86140
    6          H           0.142181        0.8578     0.85782
    7          H           0.130646        0.8694     0.86935
    8          H           0.130662        0.8693     0.86934
    9          H           0.142200        0.8578     0.85780
   10          H           0.138605        0.8614     0.86140
   11          H           0.142181        0.8578     0.85782
 DIPOLE           X         Y         Z       TOTAL
 POINT-CHG.    -0.013     0.018    -0.001     0.022
 HYBRID         0.046    -0.065     0.002     0.080
 SUM            0.033    -0.047     0.001     0.057


          ATOMIC ORBITAL ELECTRON POPULATIONS

     Atom    s        px        py        pz   
    1  C   1.05225   1.16041   1.14883   1.07739
    2  C   1.05096   1.11999   1.08460   0.97397
    3  C   1.05225   1.16042   1.14360   1.08261
    4  H   0.85780
    5  H   0.86140
    6  H   0.85782
    7  H   0.86935
    8  H   0.86934
    9  H   0.85780
   10  H   0.86140
   11  H   0.85782

 **********************
 *                    *
 * JOB ENDED NORMALLY *
 *                    *
 **********************



 TOTAL JOB TIME:             0.04 SECONDS

 == MOPAC DONE ==
