 *******************************************************************************
 ** Site#: 26757        For non-commercial use only    Version 19.255M 64BITS **
 *******************************************************************************
 ** Cite this program as: MOPAC2016, Version: 19.255M, James J. P. Stewart,   **
 ** Stewart Computational Chemistry, web: HTTP://OpenMOPAC.net. Days left: 276**
 *******************************************************************************
 **                                                                           **
 **                                MOPAC2016                                  **
 **                                                                           **
 *******************************************************************************

                              PM7 CALCULATION RESULTS

 *******************************************************************************
 *  CALCULATION DONE:                                Tue Dec 10 17:11:25 2019  *
 *  PM7        - The PM7 Hamiltonian to be used
 *  PRECISE    - CRITERIA TO BE INCREASED BY 100 TIMES
 *  T=         - A TIME OF 172800.0 SECONDS REQUESTED
 *  DUMP=N     - RESTART FILE WRITTEN EVERY  7200.000 SECONDS
 *  AUX        - OUTPUT AUXILIARY INFORMATION
 *******************************************************************************
PM7 PRECISE PM7 PRECISE PM7 PRECISE PM7 PRECISE PM7 PRECISE PM7 PRECISE PM7 PRECISE AUX
 Run from MolSSI flowchart
 A structural optimization using PM7 hamiltonian
   ATOM   CHEMICAL          X               Y               Z
  NUMBER   SYMBOL      (ANGSTROMS)     (ANGSTROMS)     (ANGSTROMS)
 
     1       C          1.15017000  *  -0.07562590  *   0.00674593  *
     2       C          0.57094300  *  -1.13270000  *  -0.93446600  *
     3       C          1.06613000  *  -2.52035000  *  -0.51833100  *
     4       H          0.72637500  *  -2.77725000  *   0.49090400  *
     5       H          0.69715300  *  -3.28848000  *  -1.20630000  *
     6       H          2.16058000  *  -2.56272000  *  -0.52831200  *
     7       C         -0.96706800  *  -1.11596000  *  -0.96412300  *
     8       C         -1.55542000  *   0.19639000  *  -1.46286000  *
     9       H         -1.15938000  *   0.45488400  *  -2.44986000  *
    10       H         -2.64371000  *   0.11111100  *  -1.54610000  *
    11       H         -1.34253000  *   1.02005000  *  -0.77543700  *
    12       H         -1.32074000  *  -1.92003000  *  -1.62092000  *
    13       H         -1.36523000  *  -1.32842000  *   0.03573480  *
    14       H          0.94415400  *  -0.93151400  *  -1.94661000  *
    15       H          0.76268700  *  -0.19445700  *   1.02414000  *
    16       H          0.91060900  *   0.93600700  *  -0.33430400  *
    17       H          2.24227000  *  -0.15110600  *   0.05016520  *
 


          CARTESIAN COORDINATES 

    NO.       ATOM           X           Y           Z

     1         C          1.1502     -0.0756      0.0067
     2         C          0.5709     -1.1327     -0.9345
     3         C          1.0661     -2.5204     -0.5183
     4         H          0.7264     -2.7772      0.4909
     5         H          0.6972     -3.2885     -1.2063
     6         H          2.1606     -2.5627     -0.5283
     7         C         -0.9671     -1.1160     -0.9641
     8         C         -1.5554      0.1964     -1.4629
     9         H         -1.1594      0.4549     -2.4499
    10         H         -2.6437      0.1111     -1.5461
    11         H         -1.3425      1.0200     -0.7754
    12         H         -1.3207     -1.9200     -1.6209
    13         H         -1.3652     -1.3284      0.0357
    14         H          0.9442     -0.9315     -1.9466
    15         H          0.7627     -0.1945      1.0241
    16         H          0.9106      0.9360     -0.3343
    17         H          2.2423     -0.1511      0.0502

 General Reference for PM7:
 "Optimization of Parameters for Semiempirical Methods VI: More Modifications to the 
 NDDO Approximations and Re-optimization of Parameters", J. J. P. Stewart, J. Mol. Mod., 1:32, 19 (2013)
 http://www.springerlink.com/openurl.asp?genre=article&id=doi:10.1007/s00894-012-1667-x

           Empirical Formula: C5 H12  =    17 atoms



      MOLECULAR POINT GROUP   :   C1  


      RHF CALCULATION, NO. OF DOUBLY OCCUPIED LEVELS = 16


          Geometry optimization using EF

          DIAGONAL MATRIX USED AS START HESSIAN

 CYCLE:     1 TIME:   0.004 TIME LEFT:  2.00D  GRAD.:    19.571 HEAT: -32.84417
 CYCLE:     2 TIME:   0.004 TIME LEFT:  2.00D  GRAD.:    18.684 HEAT: -33.02889
 CYCLE:     3 TIME:   0.008 TIME LEFT:  2.00D  GRAD.:    10.796 HEAT: -33.16035
 CYCLE:     4 TIME:   0.004 TIME LEFT:  2.00D  GRAD.:     6.698 HEAT: -33.21750
 CYCLE:     5 TIME:   0.004 TIME LEFT:  2.00D  GRAD.:     8.179 HEAT: -33.24017
 CYCLE:     6 TIME:   0.000 TIME LEFT:  2.00D  GRAD.:    10.593 HEAT: -33.24124
 CYCLE:     7 TIME:   0.004 TIME LEFT:  2.00D  GRAD.:     4.437 HEAT: -33.28148
 CYCLE:     8 TIME:   0.008 TIME LEFT:  2.00D  GRAD.:     2.927 HEAT: -33.29062
 CYCLE:     9 TIME:   0.000 TIME LEFT:  2.00D  GRAD.:     2.844 HEAT: -33.29666
 CYCLE:    10 TIME:   0.004 TIME LEFT:  2.00D  GRAD.:     4.282 HEAT: -33.30525
 CYCLE:    11 TIME:   0.004 TIME LEFT:  2.00D  GRAD.:     4.390 HEAT: -33.31306
 CYCLE:    12 TIME:   0.000 TIME LEFT:  2.00D  GRAD.:     3.305 HEAT: -33.32229
 CYCLE:    13 TIME:   0.004 TIME LEFT:  2.00D  GRAD.:     4.907 HEAT: -33.32590
 CYCLE:    14 TIME:   0.004 TIME LEFT:  2.00D  GRAD.:     2.602 HEAT: -33.33695
 CYCLE:    15 TIME:   0.000 TIME LEFT:  2.00D  GRAD.:     2.477 HEAT: -33.34415
 CYCLE:    16 TIME:   0.004 TIME LEFT:  2.00D  GRAD.:     2.000 HEAT: -33.35194
 CYCLE:    17 TIME:   0.004 TIME LEFT:  2.00D  GRAD.:     2.917 HEAT: -33.35716
 CYCLE:    18 TIME:   0.004 TIME LEFT:  2.00D  GRAD.:     1.524 HEAT: -33.36254
 CYCLE:    19 TIME:   0.000 TIME LEFT:  2.00D  GRAD.:     1.469 HEAT: -33.36562
 CYCLE:    20 TIME:   0.004 TIME LEFT:  2.00D  GRAD.:     1.849 HEAT: -33.37190
 CYCLE:    21 TIME:   0.004 TIME LEFT:  2.00D  GRAD.:     1.925 HEAT: -33.37623
 CYCLE:    22 TIME:   0.000 TIME LEFT:  2.00D  GRAD.:     1.618 HEAT: -33.38062
 CYCLE:    23 TIME:   0.004 TIME LEFT:  2.00D  GRAD.:     1.004 HEAT: -33.38446
 CYCLE:    24 TIME:   0.000 TIME LEFT:  2.00D  GRAD.:     0.885 HEAT: -33.38668
 CYCLE:    25 TIME:   0.004 TIME LEFT:  2.00D  GRAD.:     1.064 HEAT: -33.38994
 CYCLE:    26 TIME:   0.004 TIME LEFT:  2.00D  GRAD.:     1.434 HEAT: -33.39347
 CYCLE:    27 TIME:   0.004 TIME LEFT:  2.00D  GRAD.:     1.460 HEAT: -33.39762
 CYCLE:    28 TIME:   0.000 TIME LEFT:  2.00D  GRAD.:     1.364 HEAT: -33.40183
 CYCLE:    29 TIME:   0.004 TIME LEFT:  2.00D  GRAD.:     1.149 HEAT: -33.40594
 CYCLE:    30 TIME:   0.000 TIME LEFT:  2.00D  GRAD.:     1.114 HEAT: -33.40930
 CYCLE:    31 TIME:   0.004 TIME LEFT:  2.00D  GRAD.:     1.026 HEAT: -33.41196
 CYCLE:    32 TIME:   0.004 TIME LEFT:  2.00D  GRAD.:     0.923 HEAT: -33.41444
 CYCLE:    33 TIME:   0.000 TIME LEFT:  2.00D  GRAD.:     0.944 HEAT: -33.41651
 CYCLE:    34 TIME:   0.004 TIME LEFT:  2.00D  GRAD.:     1.147 HEAT: -33.41921
 CYCLE:    35 TIME:   0.004 TIME LEFT:  2.00D  GRAD.:     1.395 HEAT: -33.42287
 CYCLE:    36 TIME:   0.000 TIME LEFT:  2.00D  GRAD.:     1.858 HEAT: -33.42895
 CYCLE:    37 TIME:   0.004 TIME LEFT:  2.00D  GRAD.:     1.551 HEAT: -33.43324
 CYCLE:    38 TIME:   0.004 TIME LEFT:  2.00D  GRAD.:     1.694 HEAT: -33.43931
 CYCLE:    39 TIME:   0.000 TIME LEFT:  2.00D  GRAD.:     1.032 HEAT: -33.44194
 CYCLE:    40 TIME:   0.004 TIME LEFT:  2.00D  GRAD.:     0.532 HEAT: -33.44372
 CYCLE:    41 TIME:   0.004 TIME LEFT:  2.00D  GRAD.:     0.470 HEAT: -33.44497
 CYCLE:    42 TIME:   0.000 TIME LEFT:  2.00D  GRAD.:     0.448 HEAT: -33.44533
 CYCLE:    43 TIME:   0.004 TIME LEFT:  2.00D  GRAD.:     0.523 HEAT: -33.44622
 CYCLE:    44 TIME:   0.004 TIME LEFT:  2.00D  GRAD.:     0.525 HEAT: -33.44679
 CYCLE:    45 TIME:   0.004 TIME LEFT:  2.00D  GRAD.:     0.844 HEAT: -33.44896
 CYCLE:    46 TIME:   0.004 TIME LEFT:  2.00D  GRAD.:     0.776 HEAT: -33.45000
 CYCLE:    47 TIME:   0.004 TIME LEFT:  2.00D  GRAD.:     2.392 HEAT: -33.45200
 CYCLE:    48 TIME:   0.000 TIME LEFT:  2.00D  GRAD.:     0.845 HEAT: -33.45626
 CYCLE:    49 TIME:   0.004 TIME LEFT:  2.00D  GRAD.:     0.685 HEAT: -33.45739
 CYCLE:    50 TIME:   0.004 TIME LEFT:  2.00D  GRAD.:     0.792 HEAT: -33.46018
 CYCLE:    51 TIME:   0.000 TIME LEFT:  2.00D  GRAD.:     0.372 HEAT: -33.46079
 CYCLE:    52 TIME:   0.004 TIME LEFT:  2.00D  GRAD.:     0.217 HEAT: -33.46113
 CYCLE:    53 TIME:   0.000 TIME LEFT:  2.00D  GRAD.:     0.210 HEAT: -33.46131
 CYCLE:    54 TIME:   0.004 TIME LEFT:  2.00D  GRAD.:     0.195 HEAT: -33.46142
 CYCLE:    55 TIME:   0.004 TIME LEFT:  2.00D  GRAD.:     0.182 HEAT: -33.46152
 CYCLE:    56 TIME:   0.000 TIME LEFT:  2.00D  GRAD.:     0.163 HEAT: -33.46159
 CYCLE:    57 TIME:   0.004 TIME LEFT:  2.00D  GRAD.:     0.143 HEAT: -33.46169
 CYCLE:    58 TIME:   0.004 TIME LEFT:  2.00D  GRAD.:     0.140 HEAT: -33.46174
 CYCLE:    59 TIME:   0.000 TIME LEFT:  2.00D  GRAD.:     0.132 HEAT: -33.46180
 CYCLE:    60 TIME:   0.004 TIME LEFT:  2.00D  GRAD.:     0.115 HEAT: -33.46185
 CYCLE:    61 TIME:   0.004 TIME LEFT:  2.00D  GRAD.:     0.104 HEAT: -33.46188
 CYCLE:    62 TIME:   0.004 TIME LEFT:  2.00D  GRAD.:     0.109 HEAT: -33.46191
 CYCLE:    63 TIME:   0.000 TIME LEFT:  2.00D  GRAD.:     0.144 HEAT: -33.46194
 CYCLE:    64 TIME:   0.004 TIME LEFT:  2.00D  GRAD.:     0.127 HEAT: -33.46197
 CYCLE:    65 TIME:   0.004 TIME LEFT:  2.00D  GRAD.:     0.226 HEAT: -33.46208
 CYCLE:    66 TIME:   0.000 TIME LEFT:  2.00D  GRAD.:     0.160 HEAT: -33.46219
 CYCLE:    67 TIME:   0.004 TIME LEFT:  2.00D  GRAD.:     0.157 HEAT: -33.46234
 CYCLE:    68 TIME:   0.004 TIME LEFT:  2.00D  GRAD.:     0.117 HEAT: -33.46240
 CYCLE:    69 TIME:   0.000 TIME LEFT:  2.00D  GRAD.:     0.083 HEAT: -33.46246
 CYCLE:    70 TIME:   0.004 TIME LEFT:  2.00D  GRAD.:     0.049 HEAT: -33.46248

     GRADIENT =  0.04879 IS LESS THAN CUTOFF =  0.05000



 -------------------------------------------------------------------------------
 PM7 PRECISE PM7 PRECISE PM7 PRECISE PM7 PRECISE PM7 PRECISE PM7 PRECISE PM7 PRECISE AUX
 Run from MolSSI flowchart
 A structural optimization using PM7 hamiltonian


     GEOMETRY OPTIMISED USING EIGENVECTOR FOLLOWING (EF).     
     SCF FIELD WAS ACHIEVED                                   


                              PM7 CALCULATION
                                                       MOPAC2016 (Version: 19.255M)
                                                       Tue Dec 10 17:11:25 2019
                                                       No. of days remaining = 276




          FINAL HEAT OF FORMATION =        -33.46248 KCAL/MOL =    -140.00701 KJ/MOL


          TOTAL ENERGY            =       -776.87223 EV
          ELECTRONIC ENERGY       =      -3464.21167 EV  POINT GROUP:     C1  
          CORE-CORE REPULSION     =       2687.33944 EV
          COSMO AREA              =        131.96 SQUARE ANGSTROMS
          COSMO VOLUME            =        122.98 CUBIC ANGSTROMS

          GRADIENT NORM           =          0.04879 = 0.01183 PER ATOM
          IONIZATION POTENTIAL    =         11.131782 EV
          HOMO LUMO ENERGIES (EV) =        -11.132  4.117
          NO. OF FILLED LEVELS    =         16
          MOLECULAR WEIGHT        =         72.1498

          MOLECULAR DIMENSIONS (Angstroms)

            Atom       Atom       Distance
            H    10    H     6     5.60025
            H     5    H    16     3.97376
            H     9    H    13     2.89768


          SCF CALCULATIONS        =         76
 
          WALL-CLOCK TIME         =          0.207 SECONDS
          COMPUTATION TIME        =          0.207 SECONDS




   ATOM   CHEMICAL          X               Y               Z
  NUMBER   SYMBOL      (ANGSTROMS)     (ANGSTROMS)     (ANGSTROMS)
 
     1       C          1.14732220  *  -0.09675591  *   0.07679667  *
     2       C          0.56406777  *  -1.10751223  *  -0.91799244  *
     3       C          1.07099250  *  -2.51700346  *  -0.58272494  *
     4       H          0.73444510  *  -2.83765933  *   0.40872978  *
     5       H          0.71339885  *  -3.25356848  *  -1.30953123  *
     6       H          2.16545306  *  -2.55542576  *  -0.58683970  *
     7       C         -0.97694338  *  -1.08824420  *  -0.88818383  *
     8       C         -1.54547963  *   0.16710782  *  -1.54987088  *
     9       H         -1.21934052  *   0.25346733  *  -2.59217058  *
    10       H         -2.64093641  *   0.15386929  *  -1.54660777  *
    11       H         -1.22672224  *   1.07622966  *  -1.02813732  *
    12       H         -1.36879060  *  -1.98589693  *  -1.40369081  *
    13       H         -1.33355658  *  -1.16238569  *   0.15563390  *
    14       H          0.90637154  *  -0.83923566  *  -1.94615947  *
    15       H          0.83839652  *  -0.32100145  *   1.10311774  *
    16       H          0.81806971  *   0.92237781  *  -0.15154256  *
    17       H          2.24200417  *  -0.10284872  *   0.05212367  *

                             CARTESIAN COORDINATES

   1    C        1.147322202    -0.096755910     0.076796672
   2    C        0.564067772    -1.107512231    -0.917992441
   3    C        1.070992497    -2.517003457    -0.582724942
   4    H        0.734445101    -2.837659332     0.408729775
   5    H        0.713398852    -3.253568485    -1.309531231
   6    H        2.165453062    -2.555425762    -0.586839702
   7    C       -0.976943383    -1.088244205    -0.888183833
   8    C       -1.545479632     0.167107817    -1.549870875
   9    H       -1.219340523     0.253467329    -2.592170577
  10    H       -2.640936407     0.153869292    -1.546607772
  11    H       -1.226722241     1.076229658    -1.028137316
  12    H       -1.368790601    -1.985896930    -1.403690812
  13    H       -1.333556581    -1.162385688     0.155633904
  14    H        0.906371543    -0.839235655    -1.946159473
  15    H        0.838396515    -0.321001454     1.103117741
  16    H        0.818069710     0.922377807    -0.151542558
  17    H        2.242004171    -0.102848725     0.052123672


           Empirical Formula: C5 H12  =    17 atoms



      MOLECULAR POINT GROUP   :   C1  


                  EIGENVALUES  
 -29.30189 -25.82752 -23.83531 -21.30627 -19.10271 -15.92025 -15.26095 -14.83279
 -14.03045 -13.26593 -13.08510 -12.63550 -12.13347 -11.44978 -11.25960 -11.13178
   4.11706   4.28803   4.70176   4.88153   5.68530   5.86518   5.91524   5.97832
   6.00935   6.05680   6.21825   6.44456   6.76759   7.07855   7.10797   7.24025


              NET ATOMIC CHARGES AND DIPOLE CONTRIBUTIONS

  ATOM NO.   TYPE          CHARGE      No. of ELECS.   s-Pop       p-Pop       
    1          C          -0.452843        4.4528     1.05587     3.39698
    2          C          -0.059274        4.0593     1.05720     3.00208
    3          C          -0.458643        4.4586     1.05675     3.40189
    4          H           0.144341        0.8557     0.85566
    5          H           0.140971        0.8590     0.85903
    6          H           0.143065        0.8569     0.85693
    7          C          -0.267784        4.2678     1.05959     3.20819
    8          C          -0.438085        4.4381     1.05191     3.38618
    9          H           0.141409        0.8586     0.85859
   10          H           0.139339        0.8607     0.86066
   11          H           0.142638        0.8574     0.85736
   12          H           0.133784        0.8662     0.86622
   13          H           0.135906        0.8641     0.86409
   14          H           0.128941        0.8711     0.87106
   15          H           0.143465        0.8565     0.85654
   16          H           0.142194        0.8578     0.85781
   17          H           0.140576        0.8594     0.85942
 DIPOLE           X         Y         Z       TOTAL
 POINT-CHG.    -0.001    -0.011    -0.039     0.040
 HYBRID         0.002     0.016     0.098     0.099
 SUM            0.001     0.005     0.059     0.059


          ATOMIC ORBITAL ELECTRON POPULATIONS

     Atom    s        px        py        pz   
    1  C   1.05587   1.15082   1.12033   1.12583
    2  C   1.05720   0.97648   0.95934   1.06626
    3  C   1.05675   1.15978   1.07270   1.16941
    4  H   0.85566
    5  H   0.85903
    6  H   0.85693
    7  C   1.05959   1.01994   1.05530   1.13295
    8  C   1.05191   1.14852   1.08941   1.14825
    9  H   0.85859
   10  H   0.86066
   11  H   0.85736
   12  H   0.86622
   13  H   0.86409
   14  H   0.87106
   15  H   0.85654
   16  H   0.85781
   17  H   0.85942

 **********************
 *                    *
 * JOB ENDED NORMALLY *
 *                    *
 **********************



 TOTAL JOB TIME:             0.21 SECONDS

 == MOPAC DONE ==
