LAMMPS (7 Aug 2019)
Reading data file ...
  orthogonal box = (0 0 0) to (40.4807 40.4807 40.4807)
  1 by 1 by 1 MPI processor grid
  reading atoms ...
  1000 atoms
Finding 1-2 1-3 1-4 neighbors ...
  special bond factors lj:   0          0          0         
  special bond factors coul: 0          0          0         
  0 = max # of 1-2 neighbors
  0 = max # of 1-3 neighbors
  0 = max # of 1-4 neighbors
  1 = max # of special neighbors
  special bonds CPU = 0.000129938 secs
  read_data CPU = 0.00130796 secs
Neighbor list info ...
  update every 1 steps, delay 10 steps, check yes
  max neighbors/atom: 2000, page size: 100000
  master list distance cutoff = 12
  ghost atom cutoff = 12
  binsize = 6, bins = 7 7 7
  1 neighbor lists, perpetual/occasional/extra = 1 0 0
  (1) pair lj/class2, perpetual
      attributes: half, newton on
      pair build: half/bin/newton
      stencil: half/bin/3d/newton
      bin: standard
Setting up Verlet run ...
  Unit style    : real
  Current step  : 0
  Time step     : 4
Per MPI rank memory allocation (min/avg/max) = 5.819 | 5.819 | 5.819 Mbytes
Time Temp Press TotEng KinEng PotEng E_bond E_angle E_dihed E_impro E_vdwl E_tail E_coul E_long 
           0          130     40177.13    10274.783     387.1178     9887.665            0            0            0            0     9887.665   -63.374835            0            0 
        1000    122.83286   -71.063338   -592.85837     365.7753   -958.63367            0            0            0            0   -958.63367   -63.374835            0            0 
        2000    131.68731   -80.015292   -565.55771    392.14231   -957.70003            0            0            0            0   -957.70003   -63.374835            0            0 
        3000    136.46662   -62.996629   -549.90535    406.37429   -956.27964            0            0            0            0   -956.27964   -63.374835            0            0 
        4000    128.87529   -129.20412   -583.21339    383.76859   -966.98199            0            0            0            0   -966.98199   -63.374835            0            0 
        5000    130.75054   -45.583773   -568.66426    389.35278   -958.01704            0            0            0            0   -958.01704   -63.374835            0            0 
        6000    130.23429   -67.910684   -568.98404    387.81546   -956.79951            0            0            0            0   -956.79951   -63.374835            0            0 
        7000    133.08896   -103.91504   -563.39525    396.31618   -959.71143            0            0            0            0   -959.71143   -63.374835            0            0 
        8000    124.88992   -68.332084   -577.84015    371.90086   -949.74101            0            0            0            0   -949.74101   -63.374835            0            0 
        9000    127.89575   -63.485929   -566.93544    380.85171   -947.78715            0            0            0            0   -947.78715   -63.374835            0            0 
       10000    133.36132   -61.050527   -558.51573    397.12723   -955.64296            0            0            0            0   -955.64296   -63.374835            0            0 
       11000    127.16629   -65.937023   -582.07736     378.6795   -960.75686            0            0            0            0   -960.75686   -63.374835            0            0 
       12000    129.82032   -31.063634   -569.61209    386.58274   -956.19483            0            0            0            0   -956.19483   -63.374835            0            0 
       13000      124.032   -52.991078   -587.36164    369.34611   -956.70775            0            0            0            0   -956.70775   -63.374835            0            0 
       14000    126.26929   -84.894147   -584.91164     376.0084   -960.92004            0            0            0            0   -960.92004   -63.374835            0            0 
       15000    128.03863   -146.22592    -587.2798    381.27718   -968.55698            0            0            0            0   -968.55698   -63.374835            0            0 
       16000    133.94008    -86.28475   -564.49252    398.85068    -963.3432            0            0            0            0    -963.3432   -63.374835            0            0 
       17000    124.31395   -29.197053   -582.96523     370.1857   -953.15093            0            0            0            0   -953.15093   -63.374835            0            0 
       18000    136.19843   -8.0584909   -549.58503    405.57565   -955.16069            0            0            0            0   -955.16069   -63.374835            0            0 
       19000    132.63137   -71.708695   -567.54161    394.95357   -962.49518            0            0            0            0   -962.49518   -63.374835            0            0 
       20000    132.41586   -56.349025   -569.28063    394.31183   -963.59246            0            0            0            0   -963.59246   -63.374835            0            0 
       21000    130.59414   -76.384761   -576.25247    388.88706   -965.13953            0            0            0            0   -965.13953   -63.374835            0            0 
       22000    131.22159   -60.508402   -568.24232    390.75548   -958.99781            0            0            0            0   -958.99781   -63.374835            0            0 
       23000    129.90552    6.7297224    -565.0879    386.83644   -951.92434            0            0            0            0   -951.92434   -63.374835            0            0 
       24000    127.23758   -57.321876   -579.63066    378.89179   -958.52245            0            0            0            0   -958.52245   -63.374835            0            0 
       25000    128.80436   -69.491758   -578.41496    383.55739   -961.97235            0            0            0            0   -961.97235   -63.374835            0            0 
       26000    131.65991    -29.62376   -563.86396    392.06073   -955.92469            0            0            0            0   -955.92469   -63.374835            0            0 
       27000    129.98746   -47.984541   -570.56906    387.08046   -957.64951            0            0            0            0   -957.64951   -63.374835            0            0 
       28000    131.90559   -53.814486   -570.08285    392.79233   -962.87518            0            0            0            0   -962.87518   -63.374835            0            0 
       29000    125.24167   -48.392954   -590.92248     372.9483   -963.87079            0            0            0            0   -963.87079   -63.374835            0            0 
       30000    126.78404   -92.272522   -586.91481    377.54123   -964.45603            0            0            0            0   -964.45603   -63.374835            0            0 
       31000    133.91824   -43.030068   -563.89927    398.78566   -962.68493            0            0            0            0   -962.68493   -63.374835            0            0 
       32000    125.71996   -30.214053   -585.83853    374.37259   -960.21111            0            0            0            0   -960.21111   -63.374835            0            0 
       33000    130.95801   -72.894741   -570.37987     389.9706   -960.35047            0            0            0            0   -960.35047   -63.374835            0            0 
       34000    130.37595   -63.086666   -571.25113    388.23732   -959.48845            0            0            0            0   -959.48845   -63.374835            0            0 
       35000    127.23561   -113.92402   -588.62461    378.88591   -967.51053            0            0            0            0   -967.51053   -63.374835            0            0 
       36000    131.61039   -57.249779   -572.94192    391.91327   -964.85519            0            0            0            0   -964.85519   -63.374835            0            0 
       37000    127.72382   -85.959374   -583.76417    380.33973    -964.1039            0            0            0            0    -964.1039   -63.374835            0            0 
       38000    128.07169   -19.417163   -576.84705    381.37563   -958.22268            0            0            0            0   -958.22268   -63.374835            0            0 
       39000    128.11087   -28.552501   -581.16268    381.49229   -962.65497            0            0            0            0   -962.65497   -63.374835            0            0 
       40000    132.40537   -24.740969   -565.86894    394.28058   -960.14952            0            0            0            0   -960.14952   -63.374835            0            0 
       41000    126.52733   -50.158677   -581.04211    376.77678   -957.81888            0            0            0            0   -957.81888   -63.374835            0            0 
       42000    136.11137   -38.687413   -553.34854    405.31641   -958.66495            0            0            0            0   -958.66495   -63.374835            0            0 
       43000    130.25633   -80.126037   -572.39365    387.88111   -960.27476            0            0            0            0   -960.27476   -63.374835            0            0 
       44000    126.58602   -21.892351   -578.13705    376.95155   -955.08861            0            0            0            0   -955.08861   -63.374835            0            0 
       45000    127.28602   -102.69731   -590.92248    379.03602    -969.9585            0            0            0            0    -969.9585   -63.374835            0            0 
       46000    131.75626   -40.863222    -567.2096    392.34764   -959.55724            0            0            0            0   -959.55724   -63.374835            0            0 
       47000    130.99701   -103.11189   -570.29342    390.08672   -960.38013            0            0            0            0   -960.38013   -63.374835            0            0 
       48000    135.88065   -52.577195   -548.46486    404.62937   -953.09423            0            0            0            0   -953.09423   -63.374835            0            0 
       49000    127.13603   -22.925853   -576.72863    378.58938     -955.318            0            0            0            0     -955.318   -63.374835            0            0 
       50000    130.29471   -27.946582    -567.3935     387.9954    -955.3889            0            0            0            0    -955.3889   -63.374835            0            0 
       51000    137.05003    7.9240563   -536.42237     408.1116   -944.53397            0            0            0            0   -944.53397   -63.374835            0            0 
       52000    128.42395   -97.792222   -576.29606     382.4246   -958.72066            0            0            0            0   -958.72066   -63.374835            0            0 
       53000    131.13153    4.2963239   -552.79357    390.48731   -943.28087            0            0            0            0   -943.28087   -63.374835            0            0 
       54000    130.38132    -70.08268   -567.64498    388.25331   -955.89829            0            0            0            0   -955.89829   -63.374835            0            0 
       55000    130.98225   -20.969592    -562.7087    390.04278   -952.75148            0            0            0            0   -952.75148   -63.374835            0            0 
       56000    126.11695   -99.803048   -594.17724    375.55473   -969.73197            0            0            0            0   -969.73197   -63.374835            0            0 
       57000    126.86288   -59.667878   -580.22984      377.776   -958.00584            0            0            0            0   -958.00584   -63.374835            0            0 
       58000     132.9322   -58.949651   -564.13403    395.84939   -959.98343            0            0            0            0   -959.98343   -63.374835            0            0 
       59000    128.68691   -74.524797   -576.18108    383.20764   -959.38872            0            0            0            0   -959.38872   -63.374835            0            0 
       60000    126.42018    -47.60031   -576.45147    376.45772   -952.90919            0            0            0            0   -952.90919   -63.374835            0            0 
       61000    130.75649   -109.88897   -572.23008    389.37049   -961.60057            0            0            0            0   -961.60057   -63.374835            0            0 
       62000    135.62997  -0.86327164   -551.30636    403.88288   -955.18924            0            0            0            0   -955.18924   -63.374835            0            0 
       63000     126.9054   -93.694252   -585.39544    377.90261   -963.29804            0            0            0            0   -963.29804   -63.374835            0            0 
       64000    127.66516   -51.141076   -577.85912    380.16503   -958.02415            0            0            0            0   -958.02415   -63.374835            0            0 
       65000    127.27974   -94.014269   -582.27367    379.01734   -961.29101            0            0            0            0   -961.29101   -63.374835            0            0 
       66000    135.55347   -41.439803   -546.53905    403.65508   -950.19413            0            0            0            0   -950.19413   -63.374835            0            0 
       67000    130.99741   -45.732552   -563.22109    390.08792   -953.30901            0            0            0            0   -953.30901   -63.374835            0            0 
       68000    130.26911   -62.427776    -567.0888    387.91916   -955.00797            0            0            0            0   -955.00797   -63.374835            0            0 
       69000    127.01952   -107.25449   -582.14673    378.24244   -960.38917            0            0            0            0   -960.38917   -63.374835            0            0 
       70000    131.87908    17.458837   -554.36979    392.71339   -947.08318            0            0            0            0   -947.08318   -63.374835            0            0 
       71000    127.26689   -63.550475   -579.36816    378.97907   -958.34723            0            0            0            0   -958.34723   -63.374835            0            0 
       72000    129.00705   -87.734299   -572.89489    384.16098   -957.05587            0            0            0            0   -957.05587   -63.374835            0            0 
       73000    132.09796   -10.213463   -560.46082    393.36516   -953.82599            0            0            0            0   -953.82599   -63.374835            0            0 
       74000    128.18496   -102.10078   -585.31651    381.71292   -967.02943            0            0            0            0   -967.02943   -63.374835            0            0 
       75000    126.70513   -55.113787   -586.74414    377.30623   -964.05037            0            0            0            0   -964.05037   -63.374835            0            0 
       76000    125.44734   -50.809727   -584.92079    373.56075   -958.48154            0            0            0            0   -958.48154   -63.374835            0            0 
       77000    132.93167   -88.293706   -566.91399    395.84782   -962.76181            0            0            0            0   -962.76181   -63.374835            0            0 
       78000     131.1144   -62.465223   -571.42275    390.43629   -961.85905            0            0            0            0   -961.85905   -63.374835            0            0 
       79000    133.93072   -63.961602   -561.63054     398.8228   -960.45334            0            0            0            0   -960.45334   -63.374835            0            0 
       80000    127.36197   -112.90099   -579.62779     379.2622   -958.88999            0            0            0            0   -958.88999   -63.374835            0            0 
       81000    125.75814   -79.279858   -577.88994    374.48627   -952.37621            0            0            0            0   -952.37621   -63.374835            0            0 
       82000    130.67555   -85.913614   -571.04989    389.12948   -960.17936            0            0            0            0   -960.17936   -63.374835            0            0 
       83000    131.86831    -68.83912   -568.76373     392.6813   -961.44503            0            0            0            0   -961.44503   -63.374835            0            0 
       84000    125.65321   -78.174782   -583.36014    374.17381   -957.53396            0            0            0            0   -957.53396   -63.374835            0            0 
       85000    128.73265   -51.308383   -571.90595    383.34386   -955.24981            0            0            0            0   -955.24981   -63.374835            0            0 
       86000     129.0953   -88.533244   -579.12976    384.42376   -963.55352            0            0            0            0   -963.55352   -63.374835            0            0 
       87000     123.8209   -31.573793   -583.99406     368.7175   -952.71156            0            0            0            0   -952.71156   -63.374835            0            0 
       88000    134.20965   -60.931516   -560.13363    399.65342   -959.78705            0            0            0            0   -959.78705   -63.374835            0            0 
       89000    133.85188   -35.326465    -556.1505    398.58803   -954.73853            0            0            0            0   -954.73853   -63.374835            0            0 
       90000    124.92474   -93.064247   -590.53802    372.00454   -962.54256            0            0            0            0   -962.54256   -63.374835            0            0 
       91000    131.23007   -133.43548   -579.73692    390.78075   -970.51767            0            0            0            0   -970.51767   -63.374835            0            0 
       92000    131.73597   -58.351548   -563.10342    392.28722   -955.39064            0            0            0            0   -955.39064   -63.374835            0            0 
       93000     129.5096    -47.99948   -563.94766    385.65749   -949.60514            0            0            0            0   -949.60514   -63.374835            0            0 
       94000    136.83692   -94.725961   -555.25072    407.47698   -962.72771            0            0            0            0   -962.72771   -63.374835            0            0 
       95000    130.55411   -29.647445   -565.06749    388.76784   -953.83533            0            0            0            0   -953.83533   -63.374835            0            0 
       96000    126.29755   -106.84801   -581.66366    376.09255   -957.75621            0            0            0            0   -957.75621   -63.374835            0            0 
       97000    124.76246    -27.30743   -567.84364    371.52129   -939.36494            0            0            0            0   -939.36494   -63.374835            0            0 
       98000    131.68755   -65.216163   -561.40149    392.14303   -953.54453            0            0            0            0   -953.54453   -63.374835            0            0 
       99000     133.3233    -33.67651   -553.78968    397.01403   -950.80371            0            0            0            0   -950.80371   -63.374835            0            0 
      100000    134.30688    -57.77065   -557.69435    399.94296   -957.63731            0            0            0            0   -957.63731   -63.374835            0            0 
Loop time of 22.8318 on 1 procs for 25000 steps with 1000 atoms

Performance: 378.419 ns/day, 0.063 hours/ns, 1094.962 timesteps/s
98.0% CPU use with 1 MPI tasks x no OpenMP threads

MPI task timing breakdown:
Section |  min time  |  avg time  |  max time  |%varavg| %total
---------------------------------------------------------------
Pair    | 20.319     | 20.319     | 20.319     |   0.0 | 88.99
Bond    | 0.0027194  | 0.0027194  | 0.0027194  |   0.0 |  0.01
Neigh   | 1.4416     | 1.4416     | 1.4416     |   0.0 |  6.31
Comm    | 0.38959    | 0.38959    | 0.38959    |   0.0 |  1.71
Output  | 0.0013473  | 0.0013473  | 0.0013473  |   0.0 |  0.01
Modify  | 0.57354    | 0.57354    | 0.57354    |   0.0 |  2.51
Other   |            | 0.1038     |            |       |  0.45

Nlocal:    1000 ave 1000 max 1000 min
Histogram: 1 0 0 0 0 0 0 0 0 0
Nghost:    2977 ave 2977 max 2977 min
Histogram: 1 0 0 0 0 0 0 0 0 0
Neighs:    54232 ave 54232 max 54232 min
Histogram: 1 0 0 0 0 0 0 0 0 0

Total # of neighbors = 54232
Ave neighs/atom = 54.232
Ave special neighs/atom = 0
Neighbor list builds = 659
Dangerous builds = 0
Setting up Verlet run ...
  Unit style    : real
  Current step  : 0
  Time step     : 4
Per MPI rank memory allocation (min/avg/max) = 5.821 | 5.821 | 5.821 Mbytes
Time Temp Press TotEng KinEng PotEng E_bond E_angle E_dihed E_impro E_vdwl E_tail E_coul E_long 
      100000    134.30688    -57.77065   -557.69435    399.94296   -957.63731            0            0            0            0   -957.63731   -63.374835            0            0 
      102000    133.47216    135.34083   -727.24167    397.45729    -1124.699            0            0            0            0    -1124.699   -75.708747            0            0 
      104000    128.64842     87.58524   -706.63059    383.09304   -1089.7236            0            0            0            0   -1089.7236   -73.487881            0            0 
      106000    128.97149    59.998251   -733.53536    384.05508   -1117.5904            0            0            0            0   -1117.5904     -74.7797            0            0 
      108000    129.81146    115.47014   -727.43588    386.55637   -1113.9922            0            0            0            0   -1113.9922   -75.236943            0            0 
      110000    130.62686    19.977189   -735.56707    388.98448   -1124.5516            0            0            0            0   -1124.5516   -74.943935            0            0 
      112000    130.52748    111.07375   -745.23766    388.68853   -1133.9262            0            0            0            0   -1133.9262   -76.357082            0            0 
      114000    125.54077    63.578257   -741.69157    373.83897   -1115.5305            0            0            0            0   -1115.5305    -74.61755            0            0 
      116000    131.72677    125.19824   -736.72971    392.25983   -1128.9895            0            0            0            0   -1128.9895   -76.027063            0            0 
      118000    123.67474    110.51467   -749.96173    368.28226    -1118.244            0            0            0            0    -1118.244   -75.401552            0            0 
      120000    128.73809    145.36821    -753.0648    383.36005   -1136.4248            0            0            0            0   -1136.4248   -76.491951            0            0 
      122000    131.54434    189.18931    -729.3739    391.71658   -1121.0905            0            0            0            0   -1121.0905   -75.894094            0            0 
      124000    130.11648    149.13808   -707.18734    387.46466    -1094.652            0            0            0            0    -1094.652   -74.124858            0            0 
      126000    138.11749    167.63452   -671.91992    411.29031   -1083.2102            0            0            0            0   -1083.2102   -73.533634            0            0 
      128000    133.13129    101.67863   -735.74204    396.44226   -1132.1843            0            0            0            0   -1132.1843   -75.941004            0            0 
      130000     124.0356    65.925579   -743.22048    369.35682   -1112.5773            0            0            0            0   -1112.5773   -74.447232            0            0 
      132000    131.73897    134.38584   -716.68587    392.29615    -1108.982            0            0            0            0    -1108.982    -74.95451            0            0 
      134000    132.28624    106.83428   -728.17016    393.92584    -1122.096            0            0            0            0    -1122.096   -75.782909            0            0 
      136000    132.73221    137.39712    -728.5119    395.25385   -1123.7658            0            0            0            0   -1123.7658   -75.503084            0            0 
      138000    130.64217    107.07953   -710.38231    389.03009   -1099.4124            0            0            0            0   -1099.4124   -73.962481            0            0 
      140000    129.42807    113.10147   -742.39048     385.4147   -1127.8052            0            0            0            0   -1127.8052   -75.903957            0            0 
      142000     129.8116    156.03965   -714.56634    386.55677   -1101.1231            0            0            0            0   -1101.1231   -74.853124            0            0 
      144000    131.15347    173.30562   -711.04488    390.55264   -1101.5975            0            0            0            0   -1101.5975   -74.831447            0            0 
      146000    134.77869    135.54386   -698.00842    401.34792   -1099.3563            0            0            0            0   -1099.3563   -74.522797            0            0 
      148000      131.753    130.41363   -711.88181    392.33793   -1104.2197            0            0            0            0   -1104.2197   -74.806309            0            0 
      150000    126.95542    47.722329   -747.74999    378.05155   -1125.8015            0            0            0            0   -1125.8015    -75.04175            0            0 
      152000    134.94627    50.302279   -735.95547    401.84694   -1137.8024            0            0            0            0   -1137.8024   -75.734105            0            0 
      154000    131.32912    85.260774   -753.11629     391.0757    -1144.192            0            0            0            0    -1144.192   -76.449325            0            0 
      156000     133.4791     135.7703   -713.99316    397.47798   -1111.4711            0            0            0            0   -1111.4711   -74.839831            0            0 
      158000    124.68377     134.2699   -744.31575    371.28696   -1115.6027            0            0            0            0   -1115.6027   -75.400238            0            0 
      160000    128.11286      141.186   -722.25072    381.49822   -1103.7489            0            0            0            0   -1103.7489   -74.675245            0            0 
      162000    132.14148    118.68263   -734.87697    393.49476   -1128.3717            0            0            0            0   -1128.3717   -76.100428            0            0 
      164000    126.55857    107.16624    -737.1643    376.86981   -1114.0341            0            0            0            0   -1114.0341    -75.31069            0            0 
      166000    124.29175    102.43421   -766.96662    370.11959   -1137.0862            0            0            0            0   -1137.0862   -76.703833            0            0 
      168000     125.9832    59.567223   -731.35151    375.15645    -1106.508            0            0            0            0    -1106.508   -74.256203            0            0 
      170000    128.23542    69.567414   -763.94215    381.86319   -1145.8053            0            0            0            0   -1145.8053   -76.263674            0            0 
      172000     131.2294    124.32614   -716.46287    390.77875   -1107.2416            0            0            0            0   -1107.2416   -74.512427            0            0 
      174000    128.69517    54.050665   -743.76091    383.23224   -1126.9931            0            0            0            0   -1126.9931   -75.271991            0            0 
      176000    133.54563    126.62094   -733.66728    397.67607   -1131.3434            0            0            0            0   -1131.3434   -75.811329            0            0 
      178000    126.82616    109.38561   -744.74081    377.66665   -1122.4075            0            0            0            0   -1122.4075   -75.584161            0            0 
      180000     134.7677    62.156391   -706.52484     401.3152     -1107.84            0            0            0            0     -1107.84    -73.99656            0            0 
      182000    125.07647    94.137526   -757.77532    372.45637   -1130.2317            0            0            0            0   -1130.2317   -75.687643            0            0 
      184000    128.91329     27.73217   -712.88316    383.88176   -1096.7649            0            0            0            0   -1096.7649   -73.113798            0            0 
      186000    129.71543    138.23585    -735.2014    386.27039   -1121.4718            0            0            0            0   -1121.4718   -75.822983            0            0 
      188000    129.83491    120.59283   -740.06885    386.62618    -1126.695            0            0            0            0    -1126.695   -75.781507            0            0 
      190000    129.61725    219.31475   -749.44018    385.97803   -1135.4182            0            0            0            0   -1135.4182   -77.091991            0            0 
      192000    133.99819     96.41176   -743.87169    399.02372   -1142.8954            0            0            0            0   -1142.8954   -76.563177            0            0 
      194000    132.13631    171.06511   -720.79426    393.47937   -1114.2736            0            0            0            0   -1114.2736   -75.680276            0            0 
      196000    128.81069    129.28674    -745.7266    383.57625   -1129.3029            0            0            0            0   -1129.3029   -76.286185            0            0 
      198000     132.0678    119.86566     -721.546    393.27536   -1114.8214            0            0            0            0   -1114.8214   -75.107571            0            0 
      200000    129.90496    166.81975   -734.37838    386.83479   -1121.2132            0            0            0            0   -1121.2132   -75.995872            0            0 
      202000    133.00047    43.799364   -748.54789    396.05269   -1144.6006            0            0            0            0   -1144.6006   -76.046784            0            0 
      204000    132.92613    178.27186    -722.9806    395.83132   -1118.8119            0            0            0            0   -1118.8119   -75.957412            0            0 
      206000    127.11701    84.774764   -732.72146    378.53275   -1111.2542            0            0            0            0   -1111.2542   -74.723868            0            0 
      208000    133.52588    78.763117   -716.94803    397.61726   -1114.5653            0            0            0            0   -1114.5653   -74.770885            0            0 
      210000    124.10139    85.386546   -780.75762    369.55276   -1150.3104            0            0            0            0   -1150.3104   -77.066584            0            0 
      212000    131.67298    117.61385   -715.14356    392.09964   -1107.2432            0            0            0            0   -1107.2432   -74.537762            0            0 
      214000    129.55533    42.572582   -730.76112    385.79365   -1116.5548            0            0            0            0   -1116.5548   -74.448164            0            0 
      216000    131.48487   -5.9355725   -733.77596     391.5395   -1125.3155            0            0            0            0   -1125.3155   -74.699422            0            0 
      218000    126.38572    84.780663   -742.62458     376.3551   -1118.9797            0            0            0            0   -1118.9797   -75.284251            0            0 
      220000    128.67377    88.234503   -762.52885    383.16852   -1145.6974            0            0            0            0   -1145.6974   -76.529522            0            0 
      222000    125.68873    109.36903   -712.54367    374.27958   -1086.8233            0            0            0            0   -1086.8233   -73.644342            0            0 
      224000    128.84444    161.94996   -751.32552    383.67674   -1135.0023            0            0            0            0   -1135.0023   -76.699252            0            0 
      226000    133.77675    58.431202   -726.61911    398.36433   -1124.9834            0            0            0            0   -1124.9834   -75.117074            0            0 
      228000    125.91393    14.933065   -746.57647    374.95018   -1121.5267            0            0            0            0   -1121.5267   -74.659848            0            0 
      230000    134.83997    39.041397   -718.38509    401.53041   -1119.9155            0            0            0            0   -1119.9155   -74.623014            0            0 
      232000    134.45441    222.54773   -710.06589    400.38229   -1110.4482            0            0            0            0   -1110.4482   -75.872103            0            0 
      234000     135.9824    114.46483   -692.91683    404.93238   -1097.8492            0            0            0            0   -1097.8492   -74.267084            0            0 
      236000    128.37588    110.23092   -731.07828    382.28145   -1113.3597            0            0            0            0   -1113.3597   -74.944541            0            0 
      238000    132.09521    74.778896   -735.69343    393.35697   -1129.0504            0            0            0            0   -1129.0504   -75.632736            0            0 
      240000    134.84073    117.70396   -698.89498    401.53266   -1100.4276            0            0            0            0   -1100.4276   -74.054903            0            0 
      242000    125.29468   -0.4161791   -750.46397    373.10617   -1123.5701            0            0            0            0   -1123.5701   -74.589651            0            0 
      244000    132.86212    132.32298   -754.51219     395.6407   -1150.1529            0            0            0            0   -1150.1529   -77.079551            0            0 
      246000    129.29665    112.43978   -747.11252    385.02335   -1132.1359            0            0            0            0   -1132.1359   -76.215733            0            0 
      248000    135.61956    61.282596   -717.38226    403.85191   -1121.2342            0            0            0            0   -1121.2342    -74.72537            0            0 
      250000    129.48882    84.016469   -751.77586    385.59559   -1137.3714            0            0            0            0   -1137.3714   -76.061894            0            0 
      252000    130.34171    52.842614   -705.88035    388.13536   -1094.0157            0            0            0            0   -1094.0157   -73.015728            0            0 
      254000    124.74041    123.89881   -765.33233    371.45563    -1136.788            0            0            0            0    -1136.788   -76.495913            0            0 
      256000    125.89915    70.618825   -740.27105    374.90617   -1115.1772            0            0            0            0   -1115.1772   -74.918214            0            0 
      258000    133.95749    33.129627    -713.6935    398.90254    -1112.596            0            0            0            0    -1112.596   -74.259123            0            0 
      260000    138.25292    153.32224   -697.05955    411.69358   -1108.7531            0            0            0            0   -1108.7531   -74.893966            0            0 
      262000    131.05698    163.03252   -742.64082     390.2653   -1132.9061            0            0            0            0   -1132.9061   -76.832371            0            0 
      264000    130.13402    44.920025   -706.21677    387.51688   -1093.7336            0            0            0            0   -1093.7336   -73.379917            0            0 
      266000    130.67606    125.77185   -769.12259    389.13098   -1158.2536            0            0            0            0   -1158.2536   -77.280507            0            0 
      268000     129.9443    126.76727   -719.01933    386.95194   -1105.9713            0            0            0            0   -1105.9713   -74.762781            0            0 
      270000    130.86941    124.16463   -732.26832    389.70677   -1121.9751            0            0            0            0   -1121.9751   -75.680041            0            0 
      272000    131.83631    63.421524   -733.09812    392.58603   -1125.6841            0            0            0            0   -1125.6841   -75.024883            0            0 
      274000    127.90131    120.46586   -745.58292    380.86827   -1126.4512            0            0            0            0   -1126.4512   -75.643711            0            0 
      276000    132.92779    70.293418   -736.47846    395.83626   -1132.3147            0            0            0            0   -1132.3147   -75.488262            0            0 
      278000    126.60263   -19.931046   -718.78006    377.00102   -1095.7811            0            0            0            0   -1095.7811    -72.78296            0            0 
      280000     134.1911    9.4142677   -725.08981    399.59818    -1124.688            0            0            0            0    -1124.688   -74.823713            0            0 
      282000    129.05899    55.543518   -731.80706    384.31564   -1116.1227            0            0            0            0   -1116.1227   -74.774934            0            0 
      284000    132.04867    117.77029   -725.81709    393.21839   -1119.0355            0            0            0            0   -1119.0355   -75.370699            0            0 
      286000     131.7905    135.45239   -733.72076    392.44959   -1126.1704            0            0            0            0   -1126.1704   -75.915571            0            0 
      288000    125.67898     111.8079   -727.82742    374.25054    -1102.078            0            0            0            0    -1102.078   -74.359312            0            0 
      290000    127.78972    157.39241   -735.82462    380.53597   -1116.3606            0            0            0            0   -1116.3606   -75.799797            0            0 
      292000    131.68427    192.23076   -703.86778    392.13326    -1096.001            0            0            0            0    -1096.001   -74.709719            0            0 
      294000    126.67458    73.114427   -734.51664    377.21526   -1111.7319            0            0            0            0   -1111.7319   -74.522334            0            0 
      296000    132.92392    107.25227   -748.14196    395.82475   -1143.9667            0            0            0            0   -1143.9667   -76.729924            0            0 
      298000    135.56766     76.69218   -733.16475    403.69735   -1136.8621            0            0            0            0   -1136.8621   -75.903047            0            0 
      300000    129.11815    25.842162   -710.44691    384.49179   -1094.9387            0            0            0            0   -1094.9387   -73.226807            0            0 
Loop time of 52.706 on 1 procs for 50000 steps with 1000 atoms

Performance: 327.857 ns/day, 0.073 hours/ns, 948.659 timesteps/s
99.2% CPU use with 1 MPI tasks x no OpenMP threads

MPI task timing breakdown:
Section |  min time  |  avg time  |  max time  |%varavg| %total
---------------------------------------------------------------
Pair    | 46.83      | 46.83      | 46.83      |   0.0 | 88.85
Bond    | 0.0047591  | 0.0047591  | 0.0047591  |   0.0 |  0.01
Neigh   | 3.1658     | 3.1658     | 3.1658     |   0.0 |  6.01
Comm    | 0.82834    | 0.82834    | 0.82834    |   0.0 |  1.57
Output  | 0.00094891 | 0.00094891 | 0.00094891 |   0.0 |  0.00
Modify  | 1.6668     | 1.6668     | 1.6668     |   0.0 |  3.16
Other   |            | 0.2094     |            |       |  0.40

Nlocal:    1000 ave 1000 max 1000 min
Histogram: 1 0 0 0 0 0 0 0 0 0
Nghost:    3261 ave 3261 max 3261 min
Histogram: 1 0 0 0 0 0 0 0 0 0
Neighs:    62856 ave 62856 max 62856 min
Histogram: 1 0 0 0 0 0 0 0 0 0

Total # of neighbors = 62856
Ave neighs/atom = 62.856
Ave special neighs/atom = 0
Neighbor list builds = 1415
Dangerous builds = 0
Total wall time: 0:01:15
