 *******************************************************************************
 ** Site#: 26757        For non-commercial use only    Version 19.255M 64BITS **
 *******************************************************************************
 ** Cite this program as: MOPAC2016, Version: 19.255M, James J. P. Stewart,   **
 ** Stewart Computational Chemistry, web: HTTP://OpenMOPAC.net. Days left: 276**
 *******************************************************************************
 **                                                                           **
 **                                MOPAC2016                                  **
 **                                                                           **
 *******************************************************************************

                              PM7 CALCULATION RESULTS

 *******************************************************************************
 *  CALCULATION DONE:                                Tue Dec 10 17:11:19 2019  *
 *  PM7        - The PM7 Hamiltonian to be used
 *  PRECISE    - CRITERIA TO BE INCREASED BY 100 TIMES
 *  T=         - A TIME OF 172800.0 SECONDS REQUESTED
 *  DUMP=N     - RESTART FILE WRITTEN EVERY  7200.000 SECONDS
 *  AUX        - OUTPUT AUXILIARY INFORMATION
 *******************************************************************************
PM7 PRECISE PM7 PRECISE PM7 PRECISE PM7 PRECISE PM7 PRECISE AUX
 Run from MolSSI flowchart
 A structural optimization using PM7 hamiltonian
   ATOM   CHEMICAL          X               Y               Z
  NUMBER   SYMBOL      (ANGSTROMS)     (ANGSTROMS)     (ANGSTROMS)
 
     1       C          0.96563100  *  -0.01333960  *  -0.10222900  *
     2       C          0.44458000  *  -0.25013300  *   1.31396000  *
     3       C          0.96527500  *   0.82959400  *   2.25985000  *
     4       H          0.62446000  *   1.82371000  *   1.95187000  *
     5       H          0.61514100  *   0.65287000  *   3.28227000  *
     6       H          2.06025000  *   0.83681200  *   2.27715000  *
     7       C         -1.08242000  *  -0.27357400  *   1.32195000  *
     8       H         -1.46298000  *  -1.06117000  *   0.66317000  *
     9       H         -1.46301000  *  -0.46676100  *   2.33005000  *
    10       H         -1.49472000  *   0.68208900  *   0.98117900  *
    11       H          0.80987200  *  -1.22332000  *   1.66085000  *
    12       H          0.62470100  *   0.95172800  *  -0.49305100  *
    13       H          0.61488300  *  -0.79675500  *  -0.78210500  *
    14       H          2.06045000  *  -0.01825680  *  -0.12007100  *
 


          CARTESIAN COORDINATES 

    NO.       ATOM           X           Y           Z

     1         C          0.9656     -0.0133     -0.1022
     2         C          0.4446     -0.2501      1.3140
     3         C          0.9653      0.8296      2.2599
     4         H          0.6245      1.8237      1.9519
     5         H          0.6151      0.6529      3.2823
     6         H          2.0602      0.8368      2.2771
     7         C         -1.0824     -0.2736      1.3220
     8         H         -1.4630     -1.0612      0.6632
     9         H         -1.4630     -0.4668      2.3300
    10         H         -1.4947      0.6821      0.9812
    11         H          0.8099     -1.2233      1.6609
    12         H          0.6247      0.9517     -0.4931
    13         H          0.6149     -0.7968     -0.7821
    14         H          2.0604     -0.0183     -0.1201

 General Reference for PM7:
 "Optimization of Parameters for Semiempirical Methods VI: More Modifications to the 
 NDDO Approximations and Re-optimization of Parameters", J. J. P. Stewart, J. Mol. Mod., 1:32, 19 (2013)
 http://www.springerlink.com/openurl.asp?genre=article&id=doi:10.1007/s00894-012-1667-x

           Empirical Formula: C4 H10  =    14 atoms



      MOLECULAR POINT GROUP   :   C3v 


      RHF CALCULATION, NO. OF DOUBLY OCCUPIED LEVELS = 13


          Geometry optimization using EF

          DIAGONAL MATRIX USED AS START HESSIAN

 CYCLE:     1 TIME:   0.004 TIME LEFT:  2.00D  GRAD.:    17.582 HEAT: -28.64915
 CYCLE:     2 TIME:   0.000 TIME LEFT:  2.00D  GRAD.:     9.924 HEAT: -28.82605
 CYCLE:     3 TIME:   0.004 TIME LEFT:  2.00D  GRAD.:     8.786 HEAT: -28.87955
 CYCLE:     4 TIME:   0.004 TIME LEFT:  2.00D  GRAD.:     5.989 HEAT: -28.91176
 CYCLE:     5 TIME:   0.004 TIME LEFT:  2.00D  GRAD.:     8.586 HEAT: -28.91245
 CYCLE:     6 TIME:   0.004 TIME LEFT:  2.00D  GRAD.:     4.195 HEAT: -28.93532
 CYCLE:     7 TIME:   0.000 TIME LEFT:  2.00D  GRAD.:     2.835 HEAT: -28.94055
 CYCLE:     8 TIME:   0.004 TIME LEFT:  2.00D  GRAD.:     1.120 HEAT: -28.94459
 CYCLE:     9 TIME:   0.000 TIME LEFT:  2.00D  GRAD.:     1.622 HEAT: -28.94497
 CYCLE:    10 TIME:   0.004 TIME LEFT:  2.00D  GRAD.:     0.737 HEAT: -28.94655
 CYCLE:    11 TIME:   0.000 TIME LEFT:  2.00D  GRAD.:     0.901 HEAT: -28.94696
 CYCLE:    12 TIME:   0.004 TIME LEFT:  2.00D  GRAD.:     1.248 HEAT: -28.94695
 CYCLE:    13 TIME:   0.000 TIME LEFT:  2.00D  GRAD.:     0.550 HEAT: -28.94758
 CYCLE:    14 TIME:   0.004 TIME LEFT:  2.00D  GRAD.:     0.327 HEAT: -28.94773
 CYCLE:    15 TIME:   0.000 TIME LEFT:  2.00D  GRAD.:     0.242 HEAT: -28.94784
 CYCLE:    16 TIME:   0.004 TIME LEFT:  2.00D  GRAD.:     0.195 HEAT: -28.94793
 CYCLE:    17 TIME:   0.000 TIME LEFT:  2.00D  GRAD.:     0.138 HEAT: -28.94796
 CYCLE:    18 TIME:   0.004 TIME LEFT:  2.00D  GRAD.:     0.079 HEAT: -28.94799
 CYCLE:    19 TIME:   0.000 TIME LEFT:  2.00D  GRAD.:     0.063 HEAT: -28.94800
 CYCLE:    20 TIME:   0.000 TIME LEFT:  2.00D  GRAD.:     0.049 HEAT: -28.94800

     GRADIENT =  0.04920 IS LESS THAN CUTOFF =  0.05000



 -------------------------------------------------------------------------------
 PM7 PRECISE PM7 PRECISE PM7 PRECISE PM7 PRECISE PM7 PRECISE AUX
 Run from MolSSI flowchart
 A structural optimization using PM7 hamiltonian


     GEOMETRY OPTIMISED USING EIGENVECTOR FOLLOWING (EF).     
     SCF FIELD WAS ACHIEVED                                   


                              PM7 CALCULATION
                                                       MOPAC2016 (Version: 19.255M)
                                                       Tue Dec 10 17:11:19 2019
                                                       No. of days remaining = 276




          FINAL HEAT OF FORMATION =        -28.94800 KCAL/MOL =    -121.11843 KJ/MOL


          TOTAL ENERGY            =       -626.93487 EV
          ELECTRONIC ENERGY       =      -2506.57076 EV  POINT GROUP:     C3v 
          CORE-CORE REPULSION     =       1879.63589 EV
          COSMO AREA              =        114.36 SQUARE ANGSTROMS
          COSMO VOLUME            =        102.14 CUBIC ANGSTROMS

          GRADIENT NORM           =          0.04920 = 0.01315 PER ATOM
          IONIZATION POTENTIAL    =         11.284275 EV
          HOMO LUMO ENERGIES (EV) =        -11.284  4.289
          NO. OF FILLED LEVELS    =         13
          MOLECULAR WEIGHT        =         58.1230

          MOLECULAR DIMENSIONS (Angstroms)

            Atom       Atom       Distance
            H    13    H     5     4.33510
            H    14    H     9     3.75385
            H     4    H    11     2.70351


          SCF CALCULATIONS        =         26
 
          WALL-CLOCK TIME         =          0.055 SECONDS
          COMPUTATION TIME        =          0.054 SECONDS




   ATOM   CHEMICAL          X               Y               Z
  NUMBER   SYMBOL      (ANGSTROMS)     (ANGSTROMS)     (ANGSTROMS)
 
     1       C          0.96756722  *  -0.01368184  *  -0.10641567  *
     2       C          0.44699266  *  -0.25608665  *   1.31581869  *
     3       C          0.96742148  *   0.83174864  *   2.26357049  *
     4       H          0.62770484  *   1.82620456  *   1.95539788  *
     5       H          0.61796234  *   0.66667436  *   3.28800539  *
     6       H          2.06195571  *   0.84929208  *   2.28541550  *
     7       C         -1.08665950  *  -0.27523424  *   1.32251729  *
     8       H         -1.47717652  *  -1.05734696  *   0.66324557  *
     9       H         -1.47739449  *  -0.46331526  *   2.32789682  *
    10       H         -1.49949407  *   0.68007262  *   0.98158191  *
    11       H          0.81961015  *  -1.24802106  *   1.66970613  *
    12       H          0.62786872  *   0.95125827  *  -0.49728066  *
    13       H          0.61811450  *  -0.78990088  *  -0.79506697  *
    14       H          2.06210842  *  -0.01394431  *  -0.13435498  *

                             CARTESIAN COORDINATES

   1    C        0.967567217    -0.013681838    -0.106415671
   2    C        0.446992662    -0.256086652     1.315818693
   3    C        0.967421482     0.831748642     2.263570491
   4    H        0.627704844     1.826204559     1.955397877
   5    H        0.617962341     0.666674358     3.288005389
   6    H        2.061955705     0.849292078     2.285415504
   7    C       -1.086659502    -0.275234245     1.322517293
   8    H       -1.477176525    -1.057346962     0.663245566
   9    H       -1.477394490    -0.463315255     2.327896818
  10    H       -1.499494073     0.680072620     0.981581907
  11    H        0.819610150    -1.248021058     1.669706135
  12    H        0.627868718     0.951258271    -0.497280656
  13    H        0.618114497    -0.789900882    -0.795066967
  14    H        2.062108424    -0.013944309    -0.134354981


           Empirical Formula: C4 H10  =    14 atoms



      MOLECULAR POINT GROUP   :   C3v 


                  EIGENVALUES  
 -28.96044 -23.81769 -23.81651 -19.14254 -15.94795 -14.79799 -14.79712 -13.20415
 -13.20406 -12.64582 -11.65277 -11.65192 -11.28427   4.28936   4.28970   4.81819
   5.85602   5.93177   5.93203   6.02428   6.02442   6.03677   6.40383   7.05558
   7.18649   7.18657


              NET ATOMIC CHARGES AND DIPOLE CONTRIBUTIONS

  ATOM NO.   TYPE          CHARGE      No. of ELECS.   s-Pop       p-Pop       
    1          C          -0.455831        4.4558     1.05629     3.39954
    2          C          -0.038932        4.0389     1.05227     2.98666
    3          C          -0.455833        4.4558     1.05628     3.39955
    4          H           0.144486        0.8555     0.85551
    5          H           0.141303        0.8587     0.85870
    6          H           0.141288        0.8587     0.85871
    7          C          -0.455830        4.4558     1.05629     3.39954
    8          H           0.141292        0.8587     0.85871
    9          H           0.141294        0.8587     0.85871
   10          H           0.144487        0.8555     0.85551
   11          H           0.125203        0.8748     0.87480
   12          H           0.144483        0.8555     0.85552
   13          H           0.141303        0.8587     0.85870
   14          H           0.141288        0.8587     0.85871
 DIPOLE           X         Y         Z       TOTAL
 POINT-CHG.     0.015    -0.040     0.014     0.045
 HYBRID        -0.047     0.124    -0.044     0.140
 SUM           -0.031     0.084    -0.030     0.094


          ATOMIC ORBITAL ELECTRON POPULATIONS

     Atom    s        px        py        pz   
    1  C   1.05629   1.15625   1.17240   1.07089
    2  C   1.05227   0.96686   1.05436   0.96544
    3  C   1.05628   1.15627   1.11856   1.12472
    4  H   0.85551
    5  H   0.85870
    6  H   0.85871
    7  C   1.05629   1.05479   1.17468   1.17007
    8  H   0.85871
    9  H   0.85871
   10  H   0.85551
   11  H   0.87480
   12  H   0.85552
   13  H   0.85870
   14  H   0.85871

 **********************
 *                    *
 * JOB ENDED NORMALLY *
 *                    *
 **********************



 TOTAL JOB TIME:             0.06 SECONDS

 == MOPAC DONE ==
