 *******************************************************************************
 ** Site#: 26757        For non-commercial use only    Version 19.255M 64BITS **
 *******************************************************************************
 ** Cite this program as: MOPAC2016, Version: 19.255M, James J. P. Stewart,   **
 ** Stewart Computational Chemistry, web: HTTP://OpenMOPAC.net. Days left: 276**
 *******************************************************************************
 **                                                                           **
 **                                MOPAC2016                                  **
 **                                                                           **
 *******************************************************************************

                              PM7 CALCULATION RESULTS

 *******************************************************************************
 *  CALCULATION DONE:                                Tue Dec 10 17:11:10 2019  *
 *  PM7        - The PM7 Hamiltonian to be used
 *  PRECISE    - CRITERIA TO BE INCREASED BY 100 TIMES
 *  T=         - A TIME OF 172800.0 SECONDS REQUESTED
 *  DUMP=N     - RESTART FILE WRITTEN EVERY  7200.000 SECONDS
 *  AUX        - OUTPUT AUXILIARY INFORMATION
 *******************************************************************************
PM7 PRECISE AUX
 Run from MolSSI flowchart
 A structural optimization using PM7 hamiltonian
   ATOM   CHEMICAL          X               Y               Z
  NUMBER   SYMBOL      (ANGSTROMS)     (ANGSTROMS)     (ANGSTROMS)
 
     1       C          0.94961600  *   0.08582650  *  -0.00975851  *
     2       H          0.58554800  *   0.02814170  *  -1.03788000  *
     3       H          0.58554900  *  -0.77570700  *   0.55425700  *
     4       H          0.58555200  *   1.00505000  *   0.45434500  *
     5       H          2.04182000  *   0.08582550  *  -0.00975954  *
 


          CARTESIAN COORDINATES 

    NO.       ATOM           X           Y           Z

     1         C          0.9496      0.0858     -0.0098
     2         H          0.5855      0.0281     -1.0379
     3         H          0.5855     -0.7757      0.5543
     4         H          0.5856      1.0050      0.4543
     5         H          2.0418      0.0858     -0.0098

 General Reference for PM7:
 "Optimization of Parameters for Semiempirical Methods VI: More Modifications to the 
 NDDO Approximations and Re-optimization of Parameters", J. J. P. Stewart, J. Mol. Mod., 1:32, 19 (2013)
 http://www.springerlink.com/openurl.asp?genre=article&id=doi:10.1007/s00894-012-1667-x

           Empirical Formula: C H4  =     5 atoms



      MOLECULAR POINT GROUP   :   Td  


      RHF CALCULATION, NO. OF DOUBLY OCCUPIED LEVELS = 4


          Geometry optimization using EF

          DIAGONAL MATRIX USED AS START HESSIAN

 CYCLE:     1 TIME:   0.004 TIME LEFT:  2.00D  GRAD.:     9.407 HEAT: -14.33790
 CYCLE:     2 TIME:   0.000 TIME LEFT:  2.00D  GRAD.:     3.329 HEAT: -14.39743
 CYCLE:     3 TIME:   0.000 TIME LEFT:  2.00D  GRAD.:     5.279 HEAT: -14.39311
 CYCLE:     4 TIME:   0.000 TIME LEFT:  2.00D  GRAD.:     2.081 HEAT: -14.40226
 CYCLE:     5 TIME:   0.000 TIME LEFT:  2.00D  GRAD.:     0.735 HEAT: -14.40366
 CYCLE:     6 TIME:   0.000 TIME LEFT:  2.00D  GRAD.:     0.364 HEAT: -14.40395
 CYCLE:     7 TIME:   0.000 TIME LEFT:  2.00D  GRAD.:     0.285 HEAT: -14.40403
 CYCLE:     8 TIME:   0.000 TIME LEFT:  2.00D  GRAD.:     0.112 HEAT: -14.40408
 CYCLE:     9 TIME:   0.004 TIME LEFT:  2.00D  GRAD.:     0.060 HEAT: -14.40409
 CYCLE:    10 TIME:   0.000 TIME LEFT:  2.00D  GRAD.:     0.004 HEAT: -14.40409

     GRADIENT =  0.00428 IS LESS THAN CUTOFF =  0.05000



 -------------------------------------------------------------------------------
 PM7 PRECISE AUX
 Run from MolSSI flowchart
 A structural optimization using PM7 hamiltonian


     GEOMETRY OPTIMISED USING EIGENVECTOR FOLLOWING (EF).     
     SCF FIELD WAS ACHIEVED                                   


                              PM7 CALCULATION
                                                       MOPAC2016 (Version: 19.255M)
                                                       Tue Dec 10 17:11:10 2019
                                                       No. of days remaining = 276




          FINAL HEAT OF FORMATION =        -14.40409 KCAL/MOL =     -60.26671 KJ/MOL


          TOTAL ENERGY            =       -177.04322 EV
          ELECTRONIC ENERGY       =       -390.51092 EV  POINT GROUP:     Td  
          CORE-CORE REPULSION     =        213.46770 EV
          COSMO AREA              =         54.81 SQUARE ANGSTROMS
          COSMO VOLUME            =         37.04 CUBIC ANGSTROMS

          GRADIENT NORM           =          0.00428 = 0.00191 PER ATOM
          IONIZATION POTENTIAL    =         13.727627 EV
          HOMO LUMO ENERGIES (EV) =        -13.728  5.913
          NO. OF FILLED LEVELS    =          4
          MOLECULAR WEIGHT        =         16.0426

          MOLECULAR DIMENSIONS (Angstroms)

            Atom       Atom       Distance
            H     5    H     3     1.77211
            H     2    H     4     1.77210
            H     3    H     4     1.25306


          SCF CALCULATIONS        =         12
 
          WALL-CLOCK TIME         =          0.012 SECONDS
          COMPUTATION TIME        =          0.012 SECONDS




   ATOM   CHEMICAL          X               Y               Z
  NUMBER   SYMBOL      (ANGSTROMS)     (ANGSTROMS)     (ANGSTROMS)
 
     1       C          0.94961695  *   0.08582591  *  -0.00975886  *
     2       H          0.58790274  *   0.02851605  *  -1.03127979  *
     3       H          0.58787661  *  -0.77016694  *   0.55064296  *
     4       H          0.58788109  *   0.99913647  *   0.45137016  *
     5       H          2.03480527  *   0.08582665  *  -0.00976964  *

                             CARTESIAN COORDINATES

   1    C        0.949616954     0.085825910    -0.009758864
   2    H        0.587902737     0.028516054    -1.031279789
   3    H        0.587876605    -0.770166936     0.550642955
   4    H        0.587881093     0.999136474     0.451370159
   5    H        2.034805274     0.085826645    -0.009769643


           Empirical Formula: C H4  =     5 atoms



      MOLECULAR POINT GROUP   :   Td  


                  EIGENVALUES  
 -25.02402 -13.72781 -13.72763 -13.72763   5.91348   5.91348   5.91355   7.41223


              NET ATOMIC CHARGES AND DIPOLE CONTRIBUTIONS

  ATOM NO.   TYPE          CHARGE      No. of ELECS.   s-Pop       p-Pop       
    1          C          -0.603058        4.6031     1.04478     3.55828
    2          H           0.150764        0.8492     0.84924
    3          H           0.150765        0.8492     0.84924
    4          H           0.150764        0.8492     0.84924
    5          H           0.150764        0.8492     0.84924
 DIPOLE           X         Y         Z       TOTAL
 POINT-CHG.    -0.000     0.000     0.000     0.000
 HYBRID        -0.000     0.000    -0.000     0.000
 SUM           -0.000     0.000    -0.000     0.000


          ATOMIC ORBITAL ELECTRON POPULATIONS

     Atom    s        px        py        pz   
    1  C   1.04478   1.18609   1.18610   1.18609
    2  H   0.84924
    3  H   0.84924
    4  H   0.84924
    5  H   0.84924

 **********************
 *                    *
 * JOB ENDED NORMALLY *
 *                    *
 **********************



 TOTAL JOB TIME:             0.01 SECONDS

 == MOPAC DONE ==
